          16
Lattice="   7.6791799999999997E+000   0.0000000000000000E+000   0.0000000000000000E+000   0.0000000000000000E+000   7.6791799999999997E+000   0.0000000000000000E+000   0.0000000000000000E+000   0.0000000000000000E+000   5.4299999999999997E+000" Properties=species:S:1:pos:R:3:QM_forces:R:3:FF_forces:R:3 QM_energy=-2.7048478355543780E+003 FF_energy=-2.7048504291865715E+003 pbc="T T T" 
Si      1.5717098779467564E-003  -2.0931639336000921E-003  -9.9857419978273648E-004  -3.9662253088653524E-002   1.0128577759379446E-002   7.5827455554337364E-003  -1.7085185385376297E-005  -5.5594139555636934E-005   9.7693224899591407E-006
Si      1.9185616235009813E+000  -3.8635802111634653E-003   1.3523573711630179E+000   2.5002896737352830E-003   3.8249306013843638E-002   8.8322204515822872E-002  -5.2794465666360027E-006  -7.1458861499682416E-005  -3.2103654109748281E-006
Si      1.9221921714646932E+000   1.9218846962564109E+000   2.7131282897786608E+000  -4.7032713339787126E-002  -9.5811647155262691E-002   4.3679462517632321E-002   3.8548040873258697E-006   2.1156639187783054E-005   1.3852160513821702E-005
Si     -2.9848105350569277E-003   1.9156593370551940E+000   4.0738893576060677E+000   4.2985387499369934E-002   6.2956115266978779E-002  -2.8799605480136443E-002  -3.3892045186562866E-005  -1.3012829984531924E-005   2.4089324235308952E-006
Si      5.4542981461410348E-003   3.8399707374250727E+000   5.2543982982068667E-003  -5.5832799022551644E-002  -3.8612901293638778E-002  -4.7710379777803937E-002   3.8892943342206528E-005   5.5746357207214746E-005  -1.5706575463680731E-005
Si      1.9202411625992801E+000   3.8373963982839987E+000   1.3636421383384307E+000   2.4936002431697156E-002   3.1988669146539424E-002  -4.8053404376860190E-002  -3.1086089209554722E-005   7.0746153382452914E-005  -7.2522356014037193E-006
Si      1.9190779304557357E+000   5.7572159646013015E+000   2.7162326691147620E+000   3.8318611878297486E-002   3.6014655542895159E-002  -9.1672954372985119E-006  -3.8834622257329500E-005  -2.1499538841201177E-005   3.2542795499982581E-006
Si      3.7150014057339069E-003   5.7586949486787713E+000   4.0751505928572032E+000  -6.2265051206805852E-002  -2.2443161590165985E-002  -3.9867469806394343E-002   5.6957588351370265E-005   1.3813701873234350E-005   1.4903724805466457E-006
Si      3.8341798065047281E+000   1.6148902248913914E-003  -3.0208336185015261E-003   6.7433016142528932E-002  -8.3666011595708197E-003   1.7964259573189031E-002   1.8385911264096172E-005  -1.7366052176992452E-006  -2.4671289669214770E-005
Si      5.7584252745959956E+000   2.8076947036721734E-003   1.3549569529734069E+000  -1.9385901603163880E-002  -1.6253695849340416E-002  -1.1128041614717052E-002   3.8652542507624024E-006   1.3961333606199005E-005  -1.4182032124874478E-006
Si      5.7552645891205332E+000   1.9200577630646687E+000   2.7146183548383345E+000   5.5287438340382557E-002   2.7628105671701562E-002  -1.7931531219236792E-002  -4.2554414746864391E-006  -3.5556485486253185E-005   4.8373928953831983E-006
Si      3.8415296897509581E+000   1.9197112981276041E+000   4.0717065192705064E+000  -4.6470016078371160E-002   2.5546515228293116E-002   1.8820131843546622E-002   3.4176162791241898E-005   2.8958465194436292E-007  -1.9334640893592151E-006
Si      3.8403299760858682E+000   3.8381685413258060E+000   4.5683529100968593E-003  -4.0934890968308490E-002   4.6235864989549409E-002  -8.7684313931286173E-002  -3.8945328214711439E-005   2.1308076337378712E-006   5.2096126705435576E-006
Si      5.7561078926509879E+000   3.8429079245508451E+000   1.3553481576502724E+000   6.6034845789602156E-002  -3.4234021430082279E-002   4.3760024031665096E-002   3.1033938789197238E-005  -1.4802080731383457E-005  -3.8707602377602391E-006
Si      5.7581920789810113E+000   5.7612575652551747E+000   2.7119999817042264E+000   5.4342787197169992E-002   7.9894286716467294E-003   3.5984825073947194E-002   3.8008220528360458E-005   3.5214054565548157E-005   3.4302985250472073E-006
Si      3.8432216053944499E+000   5.7636889845913384E+000   4.0711662713150663E+000  -4.0254753645141847E-002  -7.1015209812766295E-002   2.5070260390635337E-002  -5.5796665109703552E-005   6.0190920827384422E-007   1.3810522136050345E-005
          16
Lattice="   7.6791799999999997E+000   0.0000000000000000E+000   0.0000000000000000E+000   0.0000000000000000E+000   7.6791799999999997E+000   0.0000000000000000E+000   0.0000000000000000E+000   0.0000000000000000E+000   5.4299999999999997E+000" Properties=species:S:1:pos:R:3:QM_forces:R:3:FF_forces:R:3 QM_energy=-2.7048398991658942E+003 FF_energy=-2.7048478355543780E+003 pbc="T T T" 
Si      3.0603536043340611E-003  -4.4463666805606402E-003  -2.5396348260268717E-003  -7.7285985428297496E-002   2.8081593875396344E-002   2.6461079952358881E-002  -2.4179368493456055E-001  -7.5693578826067420E-001  -1.5791003870836791E+000
Si      1.9178002071013356E+000  -7.8736737264206522E-003   1.3465889973104144E+000   3.4117205134152439E-003   7.8052421463743901E-002   1.8254963460625589E-001   1.3738083374148380E+000  -4.2647927012006848E-001  -1.8214542303477572E+000
Si      1.9250709383557241E+000   1.9241712474317763E+000   2.7116675844607063E+000  -1.0682813519175874E-001  -1.9947434528359589E-001   7.7551770640457166E-002   1.4018553959171540E+000   5.7301650982642216E-001   1.1963764812685236E+000
Si     -6.5790757839450792E-003   1.9114379600005984E+000   4.0751416553543534E+000   9.1422826097739426E-002   1.2749800674426448E-001  -5.8647413056691904E-002  -1.7740354920923309E+000  -2.4950151256592842E-001  -3.9896164019796937E-001
Si      1.1370899020392592E-002   3.8403961447042909E+000   1.0206313230443380E-002  -1.2435149676902357E-001  -7.8816963914604327E-002  -8.5313988213593317E-002   1.3456971111167659E+000   1.3002755558455437E-001  -8.8048580939774612E-001
Si      1.9210122581820621E+000   3.8350704934123576E+000   1.3696330401400192E+000   4.6459893788150575E-002   6.6474488881098276E-002  -9.4270940303387743E-002   9.4583343470816272E-001  -3.8511556067364483E-001  -4.4022792501537555E-001
Si      1.9181791808304305E+000   5.7547669982986758E+000   2.7174110334659987E+000   8.1560289354315404E-002   7.6216458461144873E-002   2.3860413217245940E-004  -5.2884472735927990E-001  -8.1483881842180172E-001  -1.5807339856652364E-001
Si      7.6127574010096642E-003   5.7583879590485516E+000   4.0784241989912458E+000  -1.2161089364094244E-001  -5.2406523746953260E-002  -8.8873727882558581E-002   5.3197246789987351E-001   1.1150377871983301E+000   1.8135025295016325E+000
Si      3.8293260684257056E+000   3.9238332946827650E-003  -6.5928046605836909E-003   1.3153445637729055E-001  -3.1451267272041609E-002   4.1221911492988220E-002   1.6197621181536448E+000   2.0202885502354153E+000  -1.6042822022099297E+000
Si      5.7576015951131083E+000   5.2995762747397139E-003   1.3525286540979651E+000  -3.7886791130428102E-002  -2.8664465872894524E-002  -2.3980800597723007E-002   3.9601021558591176E-001  -9.1928685330447035E-001   3.3401545377050257E-001
Si      5.7507450356189249E+000   1.9199801077381853E+000   2.7144703409521242E+000   1.0793606927282585E-001   5.9980345956659915E-002  -4.1721799520589756E-002  -1.1618470774293952E+000  -9.9090924126255109E-001   6.8006722290052968E-001
Si      3.8425430230557955E+000   1.9191841481062268E+000   4.0708231826112433E+000  -7.9981781637055951E-002   6.3398585412162520E-002   4.1800722242207350E-002  -2.6964911033637020E+000  -1.2908141283408507E+000  -2.6155775806523751E-001
Si      3.8408457629970818E+000   3.8374413596733037E+000   8.9032751645343761E-003  -8.0662525597856763E-002   7.6695640887679550E-002  -1.7152817286983471E-001  -6.5258261812836249E-001   2.0209410968050139E+000  -6.7948324737503007E-001
Si      5.7519513249143390E+000   3.8468937470552746E+000   1.3536878206528735E+000   1.4701488816534258E-001  -7.6485925970542504E-002   8.1556724533332042E-002  -2.5599833853924436E+000   1.9441554029583494E+000   1.4307017729028411E+000
Si      5.7573724357173308E+000   5.7632756950327941E+000   2.7094288339947461E+000   1.0447763378564927E-001   1.5068311480107703E-002   7.2268993954118024E-002   1.0865581499245176E+000   4.2371750245318268E-001   1.2483809286038683E+000
Si      3.8471672354463582E+000   5.7671707703355093E+000   4.0702175090599182E+000  -8.5210167959365785E-002  -1.2416636110162546E-001   4.0687400890488945E-002   9.1408085797920813E-001  -2.3933032321112759E+000   1.1205822093113520E+000
          16
Lattice="   7.6791799999999997E+000   0.0000000000000000E+000   0.0000000000000000E+000   0.0000000000000000E+000   7.6791799999999997E+000   0.0000000000000000E+000   0.0000000000000000E+000   0.0000000000000000E+000   5.4299999999999997E+000" Properties=species:S:1:pos:R:3:QM_forces:R:3:FF_forces:R:3 QM_energy=-2.7048268601678747E+003 FF_energy=-2.7048398991658942E+003 pbc="T T T" 
Si      4.8293807909053970E-003  -7.2562097043488974E-003  -4.7088019640500745E-003  -1.1767262195503858E-001   5.8270221094861144E-002   5.4623137156827456E-002   8.1615614495005395E-001  -1.3292145254217620E+000  -1.8283282078591856E+000
Si      1.9168626957891273E+000  -1.1581386889578269E-002   1.3412476395993038E+000   4.4948332631556068E-003   1.0906524472733077E-001   2.7066651414787629E-001  -5.1258710085159254E-001   8.8018595075558614E-001   1.2429829050664258E+000
Si      1.9280870526193954E+000   1.9261126923370688E+000   2.7099862855693697E+000  -1.6854521798529798E-001  -2.9580907201090179E-001   1.1336185522758692E-001   3.9979855480499404E-001  -1.0045549862184702E+000  -6.4211633715710403E-001
Si     -1.0246038594537160E-002   1.9077222383094994E+000   4.0759812647986733E+000   1.4368720413935543E-001   1.8163555763615249E-001  -8.3156623904655586E-002  -2.1161220304722733E-001   1.4718904313188836E+000  -1.2012766195567985E+000
Si      1.7169807332406837E-002   3.8400821215246017E+000   1.5189501678208640E-002  -1.9406297844088066E-001  -1.0539428528674497E-001  -1.2611203311315458E-001  -3.4258621325898342E-001  -2.1523762935406423E+000   9.1032730162554615E-002
Si      1.9218051570299055E+000   3.8325080547811528E+000   1.3749344904912419E+000   6.8415894513396150E-002   9.9277750503685855E-002  -1.3515765318452280E-001   6.3466185731142336E-002  -6.8851593895413132E-001  -2.0068945489558581E+000
Si      1.9177156765179775E+000   5.7516713593584088E+000   2.7183550068873816E+000   1.1726849329297803E-001   1.2110459418448317E-001  -1.2400672667028170E-003   1.2669368457461718E+000  -1.8823715444444795E+000  -6.8227846819066784E-001
Si      1.1796670286253736E-002   5.7586237767777586E+000   4.0817278157860315E+000  -1.8424795278790035E-001  -9.7036713544451994E-002  -1.4293521508537391E-001   8.3296177318784903E-001   1.5800345770426698E+000   8.7356740528504798E-002
Si      3.8242486606068020E+000   7.1814139071138669E-003  -1.0003861999034672E-002   1.9573305593693052E-001  -6.5802965890922605E-002   6.7188041330681042E-002  -6.5107061780374109E-001   2.7613481881119366E+000   4.6839677325853613E-001
Si      5.7568468758157136E+000   7.5401529346071179E-003   1.3503709925506240E+000  -5.3821287589811660E-002  -3.3293155058674147E-002  -4.7019093248638767E-002   2.0073323551357700E-001  -7.3151264841905139E-001   7.8778654859785591E-001
Si      5.7466525782283906E+000   1.9199191676694085E+000   2.7145322309032087E+000   1.5362732277142621E-001   8.6400685370820116E-002  -6.5180794301462508E-002   1.2432156850865954E+000   4.8655724139204395E-002   6.1100004452363088E-001
Si      3.8432230813492745E+000   1.9181874511323402E+000   4.0697427427568789E+000  -1.0835668288614968E-001   1.1339104201345367E-001   6.5765526047089129E-002  -9.7011588450885367E-001  -1.3667840120857637E+000  -5.7373920617896035E-001
Si      3.8414329360282844E+000   3.8368768884752860E+000   1.3537725481396203E-002  -1.1425138102605323E-001   1.0175332485127411E-001  -2.6054282563183256E-001   2.0779478381090100E-001   4.7362685797541909E-001   8.7188334351866126E-001
Si      5.7483898081672109E+000   3.8504150004062212E+000   1.3529167209798836E+000   2.2137870170692772E-001  -1.0978742903840126E-001   1.1329427475517499E-001   1.7321083110151307E+000  -1.3522943511768661E+000   2.5884426497886657E+000
Si      5.7556958570032286E+000   5.7661501474677754E+000   2.7068846942467921E+000   1.6303039782782630E-001   1.0937290183452011E-002   1.1281581734490877E-001  -2.4944165152567499E+000   2.4926327623126272E+000   7.8616312630843815E-002
Si      3.8505698010296463E+000   5.7709271315126713E+000   4.0693055522340673E+000  -1.2667778078086370E-001  -1.7471208973541666E-001   6.3629139726198922E-002  -1.5807829851192661E+000   7.9924980860484285E-001   1.0713533982289675E-001
          16
Lattice="   7.6791799999999997E+000   0.0000000000000000E+000   0.0000000000000000E+000   0.0000000000000000E+000   7.6791799999999997E+000   0.0000000000000000E+000   0.0000000000000000E+000   0.0000000000000000E+000   5.4299999999999997E+000" Properties=species:S:1:pos:R:3:QM_forces:R:3:FF_forces:R:3 QM_energy=-2.7044064493592023E+003 FF_energy=-2.7048382571557604E+003 pbc="T T T" 
Si      3.0794907204882132E-002  -3.2376372530422921E-002  -3.3311365565799118E-002  -6.6317503796441990E-001   3.2767026597074594E-001   3.1178824948140160E-001   9.2783732240500923E-007   1.1651368788821992E-006   8.8231152612723366E-007
Si      1.9049179970035408E+000  -4.7942061543357138E-002   1.2884761052659857E+000   1.2116803747773346E-001   3.1579707522941669E-001   1.1410058249998341E+000  -3.1529939348840793E-007   3.1683913235212941E-006   1.6177112041822802E-006
Si      1.9537273509001434E+000   1.9460550548067461E+000   2.6933983091404712E+000  -6.2271382090825844E-001  -1.2673695172347335E+000   5.1693959457340832E-001  -2.1310419817195186E-006   6.2865728534151899E-007   2.1717171547031306E-007
Si     -6.2782576265242140E-002   1.8735679154967921E+000   4.0725908690902477E+000   9.0147333762823800E-001   6.9367919480148865E-001  -8.4286858920233285E-002   7.3428459682758680E-007   1.7771227512414636E-006   4.6665298834482441E-007
Si      6.9579763708232031E-002   3.8377485517066319E+000   6.4496817834368003E-002  -9.5363028701576458E-001  -3.7437178278526884E-001  -5.2661244516288852E-001  -1.8308954547662780E-006  -1.5770193180358726E-008  -2.1956107563838510E-006
Si      1.9323990095707324E+000   3.8077230121248085E+000   1.4188444974616576E+000   1.5753730454777987E-001   5.0906766719079311E-001  -4.0196681486338526E-001  -2.0129750934815427E-006   1.2194372345011207E-006  -1.1229292487742348E-006
Si      1.9195495009792383E+000   5.7156501194583447E+000   2.7381217078534656E+000   5.1077539538560890E-001   5.8738661673636539E-001  -1.3158065796070309E-001  -1.5648587813381463E-006   1.3008454309011168E-007  -8.1251800525094139E-007
Si      5.2048014129909725E-002   5.7492342504737657E+000   4.1093588841717557E+000  -6.9164011423330451E-001  -4.3946883359083017E-001  -5.3916125828554617E-001  -2.9664336195925946E-006   9.5143488815488944E-007  -1.0632702436217408E-006
Si      3.7754717757095966E+000   2.8823659935558257E-002  -4.9961271055320763E-002   7.7130663979013014E-001  -3.4339668912346621E-001   4.3995467696963192E-001   1.8893984150899434E-006  -6.5687769103955853E-007   9.0302012633638360E-007
Si      5.7478123945082391E+000   4.0655619376669977E-002   1.3283821447355864E+000  -1.2691982558572404E-001  -1.8617925549691924E-001  -2.5008650966283802E-001   1.5547572013457743E-006  -2.2542080893368222E-006   1.7657263766827512E-006
Si      5.7179061962317865E+000   1.9197548392147941E+000   2.7244639460944629E+000   3.3706332022102026E-001   4.3399093903286140E-001  -5.2666478218531232E-001   2.4036307553462260E-006  -3.7618363616294164E-008  -4.1025017012286599E-007
Si      3.8562847740809700E+000   1.9060946617471615E+000   4.0677808328096710E+000  -4.9221872643800868E-001   6.2847748954648319E-001   1.7777054851222776E-001   1.3447473550352369E-006  -1.1607931701903220E-007   3.4927889189455405E-007
Si      3.8310191574247932E+000   3.8374389555433646E+000   5.8896433900278253E-002  -3.1418855064579593E-001   1.9092464059752773E-001  -1.1404734089820043E+000   9.3715239812066388E-007  -5.6847981131663994E-007  -1.5997654609621148E-006
Si      5.7003617032622325E+000   3.8941903466198275E+000   1.3409180758659351E+000   1.0741899437323998E+000  -4.7222000364742722E-001   5.7451599749509807E-001   2.3393889974220674E-006  -1.3042560099979826E-006   3.7072923171652015E-007
Si      5.7407560824799546E+000   5.7996772113911623E+000   2.6906305128152606E+000   7.6990490518568278E-001  -3.1160598383213604E-002   2.0644121123812412E-001   2.2418700242495095E-007  -2.9368879518797951E-006   4.3635917866311849E-007
Si      3.9052339490709773E+000   5.7987842361781397E+000   4.0669134995819505E+000  -7.7893252117731737E-001  -5.7282720884382343E-001   2.3241663275318519E-001  -1.5338797196309723E-006  -1.1500874773461178E-006   1.9538264569777008E-007
          16
Lattice="   7.6791799999999997E+000   0.0000000000000000E+000   0.0000000000000000E+000   0.0000000000000000E+000   7.6791799999999997E+000   0.0000000000000000E+000   0.0000000000000000E+000   0.0000000000000000E+000   5.4299999999999997E+000" Properties=species:S:1:pos:R:3:QM_forces:R:3:FF_forces:R:3 QM_energy=-2.7039169211365029E+003 FF_energy=-2.7047106916419602E+003 pbc="T T T" 
Si      4.8237467861770814E-002  -5.3093450177728048E-002  -4.4286681966281341E-002  -1.0308011043718450E+000   6.9142520620277970E-001   3.4530475736504501E-001   1.6042813686982630E-002   1.4365418627510342E-002   7.7972123809034004E-003
Si      1.9072948761387243E+000  -6.2174820894915286E-002   1.2579883231189870E+000   7.5708410051228914E-002   3.6048280864860971E-001   1.6615216302890086E+000  -6.4763006668416261E-003   4.3800822681628347E-002   2.5986936817966683E-002
Si      1.9689923118428219E+000   1.9559772949449339E+000   2.6872448249996101E+000  -7.9221649865908494E-001  -1.8201713938825799E+000   7.3419785038063412E-001  -3.5462598208886892E-002   5.5058438522276182E-003   1.4332366202967283E-003
Si     -9.5149800302852056E-002   1.8583009209935581E+000   4.0561694822437824E+000   1.4762479347473194E+000   7.9677024509963401E-001   2.3952689976052854E-001   1.0667575138547124E-002   2.5954268910826278E-002   1.4855203191523362E-002
Si      1.0816249527036731E-001   3.8367693998765082E+000   8.9648095068389722E-002  -1.5202918365472480E+000  -5.3899356522867281E-001  -7.1420087240468921E-001  -2.5463539088456125E-002   2.8094946935463198E-003  -2.8301441357154712E-002
Si      1.9408014962318776E+000   3.7954709827660835E+000   1.4482123537822218E+000   1.9584826380636441E-001   8.3138700351395123E-001  -5.3301401294238282E-001  -2.5899775562655592E-002   1.8492922513120541E-002  -1.7954647416846201E-002
Si      1.9150658803580067E+000   5.7024584027206506E+000   2.7562584836450705E+000   8.2238097865621063E-001   8.0405367072790135E-001  -2.7954007467329073E-001  -2.3096717357142391E-002  -2.3429482978389025E-003  -1.3765230868186115E-002
Si      7.1076478685679539E-002   5.7411441739626099E+000   4.1277203137504248E+000  -9.2978192695353012E-001  -6.2483340132105003E-001  -7.3676358086350668E-001  -4.4444552437068019E-002   1.3567962876526276E-002  -1.5238012354404435E-002
Si      3.7451949381448606E+000   4.4367125556375654E-002  -7.4504999100900152E-002   1.1186657936881443E+000  -6.1959969630694978E-001   6.2012351876244487E-001   2.6741082106650747E-002  -7.1650370905166029E-003   1.2858503264350649E-002
Si      5.7317357156067512E+000   6.0260525704804023E-002   1.3118091913168037E+000  -4.2629927160688752E-002  -2.6915753367656259E-001  -2.8833061561306939E-001   2.5251816763044662E-002  -3.6106134352520192E-002   2.5079066252128912E-002
Si      5.7120749859500854E+000   1.9193372369604209E+000   2.7335927876187278E+000   2.2988170903689795E-001   6.1204429135174243E-001  -9.2675354491098860E-001   3.0533354939416731E-002   1.3707313556292748E-003  -1.2585495253211400E-002
Si      3.8683771981040334E+000   1.8944812465069760E+000   4.0691177508400775E+000  -7.1828228317958343E-001   9.8563035590887371E-001   1.1989568813050923E-001   2.0920267628356370E-002   2.3272153460281234E-003   5.9609411054302253E-003
Si      3.8139844650982950E+000   3.8307647197542574E+000   7.6149996259199978E-002  -3.4970869429749396E-001   2.7321246189112497E-001  -1.5206961257272700E+000   1.3512490528759781E-002  -5.9562956061674690E-003  -1.7661754003625973E-002
Si      5.6634803513597367E+000   3.9194894185466200E+000   1.3352470350185772E+000   1.6444810730649260E+000  -6.8275009344894544E-001   7.6704641081644631E-001   3.5040684594938962E-002  -1.4399206987697862E-002   3.8075347381359053E-003
Si      5.7358826024985836E+000   5.8181741890148899E+000   2.6799168702541438E+000   1.0122453597808840E+000  -3.5516863586862783E-002   2.1356313509449024E-001   7.1653995547887274E-003  -4.3545819684860231E-002   7.2671248662262346E-003
Si      3.9398685371512441E+000   5.8133526337639445E+000   4.0697161731511393E+000  -1.1917472516625014E+000  -7.6398349589299408E-001   2.9811893653609123E-001  -2.5032001620435080E-002  -1.8679238837441856E-002   4.6082201646672881E-004
          16
Lattice="   7.6791799999999997E+000   0.0000000000000000E+000   0.0000000000000000E+000   0.0000000000000000E+000   7.6791799999999997E+000   0.0000000000000000E+000   0.0000000000000000E+000   0.0000000000000000E+000   5.4299999999999997E+000" Properties=species:S:1:pos:R:3:QM_forces:R:3:FF_forces:R:3 QM_energy=-2.7033817362937043E+003 FF_energy=-2.7043407886078844E+003 pbc="T T T" 
Si      6.3565762847001106E-002  -7.0433946336561831E-002  -5.2958865645571375E-002  -1.3411732901039681E+000   1.0989525847798094E+000   3.4709567210062592E-001   8.6673043665386126E-002   1.1495571530828402E-001   5.1924027633084721E-002
Si      1.9104661285993783E+000  -7.2773776418599154E-002   1.2334922578095073E+000   2.4772051181247166E-002   3.7256135103376414E-001   2.0900172363497491E+000  -5.7716613537767907E-002   3.9359505780972476E-001   3.0721891900600862E-001
Si      1.9717833247073335E+000   1.9615462827439916E+000   2.6849082965332474E+000  -8.2239229932520619E-001  -2.1908864645902817E+000   8.2274874731955561E-001  -2.9536452582479195E-001  -1.6237208113183351E-002   9.7032633884983396E-003
Si     -1.1727310347803711E-001   1.8534958575784592E+000   4.0347949150716396E+000   1.9464433423159777E+000   7.5412524348657106E-001   6.5356950012017734E-001   1.2211831088872600E-001   2.3075756398553210E-001   1.8583931097361611E-001
Si      1.4614564738745714E-001   3.8360666947630953E+000   1.0846937970657683E-001  -2.0111176553311072E+000  -6.7496392016241091E-001  -8.7324214057080629E-001  -2.8970666836738762E-001   1.9226854607950521E-002  -2.5665908720510933E-001
Si      1.9519584461539463E+000   3.7876303625746770E+000   1.4667344457980716E+000   2.0753875578322548E-001   1.0417138765676819E+000  -4.9105602619719368E-001  -2.4973199246745892E-001   1.4692154463818616E-001  -1.8797153440073242E-001
Si      1.9100892758804431E+000   5.6892451756994449E+000   2.7738341937207327E+000   1.0130184975485697E+000   9.7727288922182853E-001  -4.4818887535624702E-001  -1.7857079306650411E-001   4.9835719171711064E-003  -1.3966334462321620E-001
Si      8.6760800922297668E-002   5.7317497554823831E+000   4.1511378873495195E+000  -1.1095861633502049E+000  -7.7008349597436299E-001  -9.6835017717410010E-001  -3.8632209621510100E-001   8.4643328970394893E-002  -1.9684363869429558E-001
Si      3.7203327871390077E+000   5.7903689971664986E-002  -9.6727773921399710E-002   1.4251571736056721E+000  -9.6649508027073883E-001   8.0725761120943440E-001   2.8513537780745002E-001  -5.9157578581339562E-002   1.4551356494132753E-001
Si      5.7231622237778046E+000   7.6910078648389640E-002   1.3047952493541068E+000  -1.1366766134561192E-002  -3.3613579817078881E-001  -3.6023880451840651E-001   2.2903900162918650E-001  -3.1771089896404348E-001   2.4731278789331604E-001
Si      5.7092654227022308E+000   1.9227398976911203E+000   2.7436431630089499E+000   5.2972568747707963E-002   7.5504134540010781E-001  -1.3187097597374726E+000   2.8323511957105135E-001   1.7858154833380237E-002  -1.5555968399844256E-001
Si      3.8748670339401681E+000   1.8792604470484291E+000   4.0678485612629984E+000  -8.9231167324020977E-001   1.4027628235378842E+000   4.9168738805432717E-002   1.1165703343403215E-001   6.3337729769151155E-002   6.5112807904704056E-002
Si      3.7995118116291420E+000   3.8281059995792326E+000   9.1585758865181680E-002  -3.7714699753981934E-001   2.5901230879925324E-001  -1.9212448655745020E+000   1.9853865943906968E-001  -3.4360041083520462E-002  -1.7541575784623492E-001
Si      5.6339558710142974E+000   3.9425311502879694E+000   1.3250539236787628E+000   2.1471216723964774E+000  -8.3347930517178082E-001   1.0055565263487762E+000   2.8341694554434416E-001  -7.5009877645003831E-002   1.5861935821039914E-002
Si      5.7317338457788729E+000   5.8319460268298178E+000   2.6749155005424927E+000   1.1897955926050829E+000  -5.7408819270890116E-002   1.9431366127674027E-001   8.6633919338161419E-002  -4.0221916357890453E-001   8.1189611473519663E-002
Si      3.9587547209986411E+000   5.8191563038564755E+000   4.0684731068651594E+000  -1.4417248091588841E+000  -8.3198953921564589E-001   4.1130295559823632E-001  -2.2903472183839632E-001  -1.7158475387377953E-001   2.4368177329161553E-003
          16
Lattice="   7.6791799999999997E+000   0.0000000000000000E+000   0.0000000000000000E+000   0.0000000000000000E+000   7.6791799999999997E+000   0.0000000000000000E+000   0.0000000000000000E+000   0.0000000000000000E+000   5.4299999999999997E+000" Properties=species:S:1:pos:R:3:QM_forces:R:3:FF_forces:R:3 QM_energy=-2.7028128684777525E+003 FF_energy=-2.7037381238675052E+003 pbc="T T T" 
Si      7.8537356932210228E-002  -8.3560731653191528E-002  -6.1664256469616957E-002  -1.6233613989936355E+000   1.5095911390634549E+000   3.4163760421281397E-001  -8.3521582488117863E-002   2.9414662819967702E-001   1.2329362731633359E-001
Si      1.9109239626840455E+000  -7.8252927575995432E-002   1.2162661584629246E+000   2.7567369105646999E-002   3.5506769108866815E-001   2.4181783734960987E+000  -1.1630891677810032E-001   8.2063354905521479E-001   9.0729482209135270E-001
Si      1.9684299828647318E+000   1.9657841582730684E+000   2.6901941864140357E+000  -7.9355093144362165E-001  -2.4901665842732035E+000   8.5797529300879738E-001  -5.2264282934163486E-001  -3.0190132269553671E-001   3.5202071950256916E-002
Si     -1.3642550606401205E-001   1.8552425628516684E+000   4.0122468390629589E+000   2.3808457067742865E+000   6.5962179204943128E-001   1.1001068465188659E+000   4.8521436999515222E-001   4.8783098869563563E-001   5.5346895545917718E-001
Si      1.7391273270766289E-001   3.8347711043562196E+000   1.2715465696130021E-001  -2.2999274881251646E+000  -7.2121336261040925E-001  -1.0442487688590563E+000  -8.2723380979932870E-001  -4.2370901595096488E-002  -6.1527456242049883E-001
Si      1.9640120098245974E+000   3.7803048379266349E+000   1.4868319052772683E+000   1.7385726546135122E-001   1.1608953548915826E+000  -5.3487095495179493E-001  -6.3456852749762094E-001   2.9568977644576461E-001  -5.4512465862115955E-001
Si      1.9038938829133321E+000   5.6712364817446135E+000   2.7874542158807754E+000   1.1683829783033384E+000   1.2071459993434814E+000  -5.5415788223033624E-001  -2.3306488391265962E-001   1.6385956258381479E-001  -3.3632860165116996E-001
Si      9.8147935898864447E-002   5.7282785266325771E+000   4.1687207970451947E+000  -1.2439690520640898E+000  -9.9963757944899689E-001  -1.1103882548647681E+000  -8.1386708558277887E-001   1.5407438618428188E-002  -5.8807430486426493E-001
Si      3.7000968705859387E+000   7.3403345387061322E-002  -1.1522904381513839E-001   1.6562718800824232E+000  -1.4351092617226655E+000   1.0613153065480596E+000   8.1317033758454182E-001  -1.8538740176617699E-001   4.2748538146074955E-001
Si      5.7219612315074384E+000   9.5537781514170333E-002   1.3034865227397541E+000  -1.8715090119069813E-002  -5.2029874219587346E-001  -4.5053487385654506E-001   4.6581489096374479E-001  -6.3767135799082642E-001   5.4897051154316945E-001
Si      5.7075915044943297E+000   1.9236044595360033E+000   2.7520264867611974E+000  -1.3979890102477724E-001   9.3576530098621147E-001  -1.6987503762187792E+000   6.2416007291848696E-001   1.3493498410218110E-001  -4.7860208278087407E-001
Si      3.8828418239860358E+000   1.8574418795540444E+000   4.0644555067488604E+000  -1.0652545555649822E+000   1.9427585841549346E+000  -4.5292269886376753E-002  -1.1201146307470546E-001   3.3455558482853770E-001   1.6357956136696106E-001
Si      3.7875582784773711E+000   3.8326826029491179E+000   1.0419362873340834E-001  -4.5196708048195605E-001   1.5792803489134949E-001  -2.3009266901245686E+000   6.2591330259963573E-001  -3.9327194483911428E-002  -5.0357648556431012E-001
Si      5.6128646621857703E+000   3.9637157917588710E+000   1.3069529905282549E+000   2.5500863541458312E+000  -9.8633750849599056E-001   1.2847027389407244E+000   6.2955225823131866E-001  -7.5358895914268406E-002   2.6227615520059370E-002
Si      5.7292144868296155E+000   5.8330230034936079E+000   2.6723916264253793E+000   1.3294818498065955E+000   4.2622760493459533E-002   1.2434535749385145E-001   3.0263130352347861E-001  -7.9427997665547767E-001   2.0458404503728167E-001
Si      3.9715187841720541E+000   5.8218671232515167E+000   4.0645177792434195E+000  -1.6499489058621764E+000  -8.1863361821543412E-001   5.5090855077301426E-001  -6.0323743734141233E-001  -4.7076146142795972E-001   7.6874104156935727E-002
          16